

10000 atoms
10 atom types
0.0 100 xlo xhi
0.0 100 ylo yhi
0.0 0.0 zlo zhi

Atoms

1 1 0 0 0.40981957332495067
2 1 98 1 0.05047013144631207
3 1 98 2 0.03165308584875448
4 1 98 3 0.9860011255709679
5 1 98 4 0.5355463104797469
6 1 98 5 0.2421148734900893
7 1 98 6 0.10051693392542194
8 1 98 7 0.022648951158698916
9 1 98 8 0.35599821280183996
10 1 98 9 0.23692849466608035
11 1 98 10 0.5358750769702363
12 1 98 11 0.48071632677965925
13 1 98 12 0.544116158297955
14 1 98 13 0.5138164753387784
15 1 98 14 0.4462421471331851
16 1 98 15 0.18527293322592664
17 1 98 16 0.14525946265119083
18 1 98 17 0.052671236634564966
19 1 98 18 0.6855678740788849
20 1 98 19 0.14539311402456956
21 1 98 20 0.5359468392091553
22 1 98 21 0.06658236393443051
23 1 98 22 0.3808909680566924
24 1 98 23 0.4394654058055658
25 1 98 24 0.9617761829323787
26 1 98 25 0.2455756849207088
27 1 98 26 0.6846950287610656
28 1 98 27 0.931016394432143
29 5 98 28 0.39503228433346194
30 5 98 29 0.9684549837483978
31 5 98 30 0.5203072266091939
32 5 98 31 0.4439849991494623
33 5 98 32 0.828467761681321
34 5 98 33 0.9168585107294678
35 5 98 34 0.2302827798436744
36 5 98 35 0.39454846157947887
37 5 98 36 0.27896990621231776
38 5 98 37 0.5344323358072798
39 5 98 38 0.46056904731153736
40 5 98 39 0.7760148057335297
41 5 98 40 0.713301502426717
42 5 98 41 0.8140607307035216
43 5 98 42 0.31734512959204164
44 5 98 43 0.8239605447015675
45 5 98 44 0.8278314990042992
46 5 98 45 0.9673837997264289
47 5 98 46 0.8187843875015338
48 9 98 47 0.6507069393079984
49 9 98 48 0.11514706098829142
50 9 98 49 0.6333708620519924
51 9 98 50 0.9305885449175306
52 9 98 51 0.6313916885838007
53 9 98 52 0.9326653834232981
54 9 98 53 0.4165075096546348
55 9 98 54 0.0219941152196359
56 9 98 55 0.3483073097300644
57 9 98 56 0.35184051339891587
58 9 98 57 0.7101931858427359
59 9 98 58 0.4080527508840279
60 9 98 59 0.4558413052347462
61 9 98 60 0.4112863279695371
62 9 98 61 0.9572355181228795
63 9 98 62 0.7543394610012195
64 9 98 63 0.9152675302312786
65 9 98 64 0.023114104075970587
66 9 98 65 0.7268663037818816
67 9 98 66 0.5118437149987867
68 9 98 67 0.666801846467594
69 9 98 68 0.18900915588039346
70 9 98 69 0.24649295571302632
71 9 98 70 0.22264984706602697
72 7 98 71 0.9557497897125399
73 7 98 72 0.3710478463018896
74 7 98 73 0.31643930839563505
75 7 98 74 0.49111544603900936
76 7 98 75 0.2102374243952021
77 7 98 76 0.831982591703229
78 7 98 77 0.8572172938794622
79 7 98 78 0.6506072799345496
80 7 98 79 0.5799309883208434
81 7 98 80 0.5106995233281502
82 7 98 81 0.6914111021153065
83 7 98 82 0.6724561769084114
84 7 98 83 0.988315015231666
85 7 98 84 0.5307793388735901
86 7 98 85 0.5460443584238152
87 7 98 86 0.66164382405197
88 7 98 87 0.8255124382872255
89 7 98 88 0.7535690758981336
90 7 98 89 0.6763392985614883
91 7 98 90 0.3628359352547623
92 7 98 91 0.2142943788791427
93 7 98 92 0.881898815541103
94 7 98 93 0.9580669401854435
95 7 98 94 0.460728036975638
96 1 98 95 0.1188415400387638
97 1 98 96 0.4965536935351229
98 1 98 97 0.7732252324555637
99 1 98 98 0.10027118310135241
100 1 98 1 0.4339828305039538
101 1 1 98 0.06483874119210553
102 1 98 98 0.5225724045786568
103 1 1 2 0.9751970401688905
104 1 1 3 0.5920512959798198
105 1 1 4 0.3990499008646661
106 1 1 5 0.13858075894583133
107 1 1 6 0.5373630747379685
108 1 1 7 0.15516121264753668
109 1 1 8 0.2623918001456642
110 1 1 9 0.5436656755305938
111 1 1 10 0.3647899792973226
112 1 1 11 0.32262431782454304
113 1 1 12 0.8208589041635072
114 1 1 13 0.6010838530641648
115 1 1 14 0.4928654984120635
116 1 1 15 0.27638742014310425
117 1 1 16 0.42182364152724294
118 1 1 17 0.73968349626181
119 1 1 18 0.5610396896313484
120 1 1 19 0.8117873314368538
121 1 1 20 0.7435513329421226
122 1 1 21 0.09872839952784929
123 1 1 22 0.95643916049306
124 1 1 23 0.7565834762062951
125 1 1 24 0.7045885088518984
126 1 1 25 0.7353067969489205
127 1 1 26 0.7461782533959352
128 1 1 27 0.2681424252779918
129 5 1 28 0.6479477833140939
130 5 1 29 0.1643752506577394
131 5 1 30 0.08174788510105413
132 5 1 31 0.21681260882822195
133 5 1 32 0.22223870666720336
134 5 1 33 0.2602766172259361
135 5 1 34 0.9317131529126412
136 5 1 35 0.5129415754090699
137 5 1 36 0.07037124580529197
138 5 1 37 0.33861009908957285
139 5 1 38 0.45305354433505296
140 5 1 39 0.415652527004877
141 5 1 40 0.9061841452337088
142 5 1 41 0.05862077864208204
143 5 1 42 0.046830011848641884
144 5 1 43 0.5734102237621425
145 5 1 44 0.8103278914113293
146 5 1 45 0.6388149524769426
147 5 1 46 0.1604657250367837
148 9 1 47 0.7895711596667855
149 9 1 48 0.6089582228472109
150 9 1 49 0.762296568768227
151 9 1 50 0.19677823353710722
152 9 1 51 0.280526613990581
153 9 1 52 0.012272186797544715
154 9 1 53 0.46335909213888604
155 9 1 54 0.469002435466502
156 9 1 55 0.49971104939228783
157 9 1 56 0.7846464283416651
158 9 1 57 0.23315656501448623
159 9 1 58 0.0013958341574176192
160 9 1 59 0.4376629223825882
161 9 1 60 0.5941127751970763
162 9 1 61 0.5598160271791127
163 9 1 62 0.1166180695855451
164 9 1 63 0.6764886116142763
165 9 1 64 0.34613357319972393
166 9 1 65 0.12714329943537772
167 9 1 66 0.1739296530797092
168 9 1 67 0.37649429955277613
169 9 1 68 0.7451153695727677
170 9 1 69 0.9361124675908632
171 9 1 70 0.5263549546737986
172 7 1 71 0.8034148164822142
173 7 1 72 0.5468263114812252
174 7 1 73 0.6846191251752985
175 7 1 74 0.7503073052174644
176 7 1 75 0.9665824638926661
177 7 1 76 0.4658589083339487
178 7 1 77 0.8435157757203519
179 7 1 78 0.46777467762508185
180 7 1 79 0.43154300490036657
181 7 1 80 0.9845069389529915
182 7 1 81 7.377234381766851E-4
183 7 1 82 0.6290168565269612
184 7 1 83 0.3950396570212341
185 7 1 84 0.37290101900815986
186 7 1 85 0.2103659270533701
187 7 1 86 0.9528254336922335
188 7 1 87 0.665950686476712
189 7 1 88 0.07497474965065831
190 7 1 89 0.2797632167532943
191 7 1 90 0.3317509227734232
192 7 1 91 0.2826795500622932
193 7 1 92 0.240809330731504
194 7 1 93 0.15545852165438878
195 7 1 94 0.4013016004754829
196 1 1 95 0.11566109795868962
197 1 1 96 0.5931313063343412
198 1 1 97 0.8272434838833306
199 1 1 98 0.14497095663584736
200 1 1 1 0.9530611419578355
201 4 2 98 0.0042148076175665405
202 4 2 1 0.4599847058593809
203 4 2 2 0.3610519969927265
204 4 2 3 0.2484109601083192
205 4 2 4 0.12916580621131113
206 4 2 5 0.7839435005855883
207 4 2 6 0.052548266808158495
208 4 2 7 0.9208320076761293
209 4 2 8 0.1925431297785244
210 4 2 9 0.12693474671738214
211 4 2 10 0.31809276985497326
212 4 2 11 0.3416707703863925
213 4 2 12 0.5574966823206509
214 4 2 13 0.8554452941218726
215 4 2 14 0.11963801845640698
216 4 2 15 0.9157770790847198
217 4 2 16 0.02008071874148032
218 4 2 17 0.406870902715171
219 4 2 18 0.381781403638482
220 4 2 19 0.4713237341221458
221 4 2 20 0.8661260019326719
222 4 2 21 0.5413207306087574
223 4 2 22 0.23794227440191917
224 4 2 23 0.0089792939953931
225 4 2 24 0.6040314414842227
226 4 2 25 0.9189764897422787
227 4 2 26 0.8802079986425312
228 4 2 27 0.22940963428521133
229 4 2 28 0.9440625117854231
230 5 2 29 0.6177831792113224
231 5 2 30 0.3925185424569547
232 5 2 31 0.6574983185029906
233 5 2 32 0.03322010554570953
234 5 2 33 0.7462868826882597
235 5 2 34 0.1509600523540212
236 5 2 35 0.11233983939380376
237 5 2 36 0.17446992876397116
238 5 2 37 0.877724443635453
239 5 2 38 0.8602899255356827
240 5 2 39 0.7339734620582948
241 5 2 40 0.26009954684527714
242 5 2 41 0.6340089120451772
243 5 2 42 0.0624171187758511
244 5 2 43 0.7709899359404542
245 5 2 44 0.9311964525046559
246 5 2 45 0.3820432954944286
247 5 2 46 4.1321330716170834E-4
248 9 2 47 0.857557310771845
249 9 2 48 0.038716848971166784
250 9 2 49 0.6698350292065837
251 9 2 50 0.05073133607110747
252 9 2 51 0.5640757601861535
253 9 2 52 0.32634204637593545
254 9 2 53 0.7261716647287617
255 9 2 54 0.5466611237718438
256 9 2 55 0.5925860717290258
257 9 2 56 0.38129539871482265
258 9 2 57 0.0751581559435699
259 9 2 58 0.7076504574503291
260 9 2 59 0.10621969568382994
261 9 2 60 0.806519351559316
262 9 2 61 0.07570481420443709
263 9 2 62 0.5619749664730621
264 9 2 63 0.33139314636271233
265 9 2 64 0.2560890095155487
266 9 2 65 0.9860938078159981
267 9 2 66 0.20433920439053266
268 9 2 67 0.7521129145244734
269 9 2 68 0.445464877539529
270 9 2 69 0.975041948549282
271 9 2 70 0.46534385376863596
272 10 2 71 0.9276717095969771
273 10 2 72 0.49916412468798277
274 10 2 73 0.3532155187582018
275 10 2 74 0.08635553986035904
276 10 2 75 0.20818015299534764
277 10 2 76 0.03065641568383537
278 10 2 77 0.18294304046023435
279 10 2 78 0.791167096952502
280 10 2 79 0.39679317788658797
281 10 2 80 0.16276656306497472
282 10 2 81 0.3389099107281087
283 10 2 82 0.2249379563115066
284 10 2 83 0.7131531988325074
285 10 2 84 0.29159320746091344
286 10 2 85 0.0389087343231731
287 10 2 86 0.5912554591660901
288 10 2 87 0.2494873503163869
289 10 2 88 0.772929020094002
290 10 2 89 0.8412577113305508
291 10 2 90 0.9597599812300408
292 10 2 91 0.4789593007774471
293 10 2 92 0.8673947171216605
294 10 2 93 0.11428892411356151
295 10 2 94 0.6396279540434145
296 10 2 95 0.2752906066963767
297 4 2 96 0.21897543684242193
298 4 2 97 0.02334677273107577
299 4 2 98 0.7183083302838743
300 4 2 1 0.33333072977416345
301 4 3 98 0.8613748011626856
302 4 3 1 0.15202685796898696
303 4 3 2 0.8502603612185005
304 4 3 3 0.842168416203184
305 4 3 4 0.2475787107200148
306 4 3 5 0.9769235661343763
307 4 3 6 0.64704073949665
308 4 3 7 0.7555418589786523
309 4 3 8 0.08024693813030925
310 4 3 9 0.5489446271721713
311 4 3 10 0.5679415143397658
312 4 3 11 0.028718488349660287
313 4 3 12 0.7840277933188917
314 4 3 13 0.8992893020011993
315 4 3 14 0.03947982452793719
316 4 3 15 0.7466798652572505
317 4 3 16 0.3056172291294611
318 4 3 17 0.8844763778454711
319 4 3 18 0.6423938679961052
320 4 3 19 0.15536067827225974
321 4 3 20 0.553360537420513
322 4 3 21 0.41234684480404915
323 4 3 22 0.5963994529753897
324 4 3 23 0.22585539699410173
325 4 3 24 0.19542125727838477
326 4 3 25 0.24975558738318204
327 4 3 26 0.44581446625452037
328 4 3 27 0.53091992596389
329 4 3 28 0.7240185695378886
330 4 3 29 0.9027048928705096
331 5 3 30 0.8032592252701339
332 5 3 31 0.8937594971486725
333 5 3 32 0.6629609129765125
334 5 3 33 0.3809625725593144
335 5 3 34 0.24399240943211198
336 5 3 35 0.48100866181684065
337 5 3 36 0.5466802296677402
338 5 3 37 0.011745376047662459
339 5 3 38 0.9600442280838727
340 5 3 39 0.7549727762063093
341 5 3 40 0.8311976681071916
342 5 3 41 0.8508385340842473
343 5 3 42 0.5811595005958227
344 5 3 43 0.9746145483215534
345 5 3 44 0.21092823460030918
346 5 3 45 0.6545606385939772
347 5 3 46 0.648665424850971
348 9 3 47 0.740433533744694
349 9 3 48 0.9099584730978489
350 9 3 49 0.8222723119985124
351 9 3 50 0.5887297884331334
352 9 3 51 0.4153002361549971
353 9 3 52 0.39240780098778383
354 9 3 53 0.19666638238388856
355 9 3 54 0.6730775567513692
356 9 3 55 0.1214706518958375
357 9 3 56 0.5937103948808271
358 9 3 57 0.1178660747207283
359 9 3 58 0.3780847401411698
360 9 3 59 0.41342114606544444
361 9 3 60 0.21313187706844883
362 9 3 61 0.6673968260727289
363 9 3 62 0.7572705222546181
364 9 3 63 0.6568077135573075
365 9 3 64 0.8275604304478006
366 9 3 65 0.6093865259198663
367 9 3 66 0.9275598727361279
368 9 3 67 0.6057674406973513
369 9 3 68 0.5875896737329492
370 9 3 69 0.13888812236245696
371 10 3 70 0.5362904901726884
372 10 3 71 0.6639445337107794
373 10 3 72 0.0391366214915837
374 10 3 73 0.18100723363068194
375 10 3 74 0.12378950937525057
376 10 3 75 0.8390367267543579
377 10 3 76 0.17731445092577358
378 10 3 77 0.6495566454780439
379 10 3 78 0.6254471241037862
380 10 3 79 0.4563225343498659
381 10 3 80 0.18400689737765996
382 10 3 81 0.7702490755644245
383 10 3 82 0.8675654816426853
384 10 3 83 0.2835435100830823
385 10 3 84 0.4265672045537672
386 10 3 85 0.30097779611418474
387 10 3 86 0.8028630465549542
388 10 3 87 0.8376798310003464
389 10 3 88 0.20229148136660047
390 10 3 89 0.24052442738540103
391 10 3 90 0.40436636243506485
392 10 3 91 0.2935716386019198
393 10 3 92 0.4017922769500042
394 10 3 93 0.40707224143600096
395 10 3 94 0.5905218833727879
396 10 3 95 0.5950026475992686
397 4 3 96 0.7341257567162787
398 4 3 97 0.08919176753054225
399 4 3 98 0.2897134154765939
400 4 3 1 0.08077625484641959
401 4 4 98 0.4075012007887028
402 4 4 1 0.8245054832625637
403 4 4 2 0.7689709944183052
404 4 4 3 0.1814792033875252
405 4 4 4 0.1916292264193744
406 4 4 5 0.24502667551983237
407 4 4 6 0.6495093171082589
408 4 4 7 0.5170410683723584
409 4 4 8 0.601240926159383
410 4 4 9 0.8432068748047771
411 4 4 10 0.6108353577751682
412 4 4 11 0.030862248998121844
413 4 4 12 0.5350370683242999
414 4 4 13 0.45901565146559375
415 4 4 14 0.6455160524477818
416 4 4 15 0.6331976560525957
417 4 4 16 0.08030289715814298
418 4 4 17 0.26591474649625424
419 4 4 18 0.8682986761743926
420 4 4 19 0.19464640284532075
421 4 4 20 0.350650746409489
422 4 4 21 0.04237891999300136
423 4 4 22 0.3061283470387405
424 4 4 23 0.630012712267541
425 4 4 24 0.16282910535251272
426 4 4 25 0.5556534707160813
427 4 4 26 0.7997080164625517
428 4 4 27 0.24346694928461465
429 4 4 28 0.07826353175867184
430 4 4 29 0.9557285494222699
431 4 4 30 0.13259867100702605
432 5 4 31 0.4678496515515135
433 5 4 32 0.8359711468935039
434 5 4 33 0.1800490588868776
435 5 4 34 0.7704582668634471
436 5 4 35 0.6241258845702661
437 5 4 36 0.48571732695184666
438 5 4 37 0.5032678631603762
439 5 4 38 0.14087013959015626
440 5 4 39 0.3514107911686273
441 5 4 40 0.5937591035353128
442 5 4 41 0.5313892921104004
443 5 4 42 0.21331261110154365
444 5 4 43 0.9136517156181748
445 5 4 44 0.7382473850270537
446 5 4 45 0.13593891373701117
447 5 4 46 0.24917362272909982
448 9 4 47 0.6759662554101624
449 9 4 48 0.1373357751473927
450 9 4 49 0.05133474785610348
451 9 4 50 0.9833152519830783
452 9 4 51 0.6617991775804183
453 9 4 52 0.660270504614377
454 9 4 53 0.1174237207611446
455 9 4 54 0.1715451566201306
456 9 4 55 0.2514761494620217
457 9 4 56 0.6602131808369021
458 9 4 57 0.43918698463521955
459 9 4 58 0.3924527250641695
460 9 4 59 0.7633952038758732
461 9 4 60 0.03727358296992067
462 9 4 61 0.05690585696838213
463 9 4 62 0.2274202157855253
464 9 4 63 0.871011824259266
465 9 4 64 0.6912071915423718
466 9 4 65 0.07262007581242169
467 9 4 66 0.45921998284777454
468 9 4 67 0.5519371880233958
469 9 4 68 0.0554583692815086
470 10 4 69 0.56249850831859
471 10 4 70 0.7274607522961107
472 10 4 71 0.5398828621327163
473 10 4 72 0.717706473609116
474 10 4 73 0.01978177683937643
475 10 4 74 0.15824753798475633
476 10 4 75 0.055850206198092334
477 10 4 76 0.2267989945000478
478 10 4 77 0.5192453613459695
479 10 4 78 0.8457712999341523
480 10 4 79 0.9318757611268059
481 10 4 80 0.06193244812284182
482 10 4 81 0.27167061391978986
483 10 4 82 0.7051457788656812
484 10 4 83 0.1088088300752269
485 10 4 84 0.3971680679142424
486 10 4 85 0.7456003915669928
487 10 4 86 0.13866081733939195
488 10 4 87 0.8890107913314806
489 10 4 88 0.7328459463230785
490 10 4 89 0.0736949921257456
491 10 4 90 0.16172297704660954
492 10 4 91 0.25553047455378053
493 10 4 92 0.6851881178882717
494 10 4 93 0.03229298810476744
495 10 4 94 0.12010574091227855
496 10 4 95 0.031223172470682514
497 4 4 96 0.2263572584223027
498 4 4 97 0.4853208568440951
499 4 4 98 0.8967329732356286
500 4 4 1 0.6444459173747855
501 4 5 98 0.44946436814579804
502 4 5 1 0.8174844659835019
503 4 5 2 0.5540714207061032
504 4 5 3 0.7923746363082822
505 4 5 4 0.49649565103315163
506 4 5 5 0.5467137756047019
507 4 5 6 0.6873089644258424
508 4 5 7 0.34865370425845565
509 4 5 8 0.6318549043135986
510 4 5 9 0.0021225130103452727
511 4 5 10 0.3738473430268534
512 4 5 11 0.4490020968087026
513 4 5 12 0.5701944917360552
514 4 5 13 0.6812820859280073
515 4 5 14 0.49623946085795545
516 4 5 15 0.8065643671478766
517 4 5 16 0.07443487030869866
518 4 5 17 0.6593994960384044
519 4 5 18 0.38855293299288973
520 4 5 19 0.9582090967323261
521 4 5 20 0.5283484210681306
522 4 5 21 0.21302705820010692
523 4 5 22 0.21024299186035578
524 4 5 23 0.32364087861063295
525 4 5 24 0.6578107716340442
526 4 5 25 0.6422211064729884
527 4 5 26 0.1869699889737707
528 4 5 27 0.6711067759546706
529 4 5 28 0.8257987626197315
530 4 5 29 0.12760644354132356
531 4 5 30 0.8743973237760319
532 4 5 31 0.8266415307564593
533 5 5 32 0.3584409961753653
534 5 5 33 0.34259135177126665
535 5 5 34 0.898858102576073
536 5 5 35 0.23821032076206894
537 5 5 36 0.17290341035382029
538 5 5 37 0.4560177803595591
539 5 5 38 0.2078799701899039
540 5 5 39 0.3117716393705501
541 5 5 40 0.572619054247366
542 5 5 41 0.10682054416074782
543 5 5 42 0.7239090639414721
544 5 5 43 0.2731972445320666
545 5 5 44 0.4513473912851381
546 5 5 45 0.9098073750689952
547 5 5 46 0.4361757949188053
548 9 5 47 0.6781498667398415
549 9 5 48 0.3047755963278267
550 9 5 49 0.060462136864570026
551 9 5 50 0.3884967773882799
552 9 5 51 0.5914336602169475
553 9 5 52 0.3868503649860803
554 9 5 53 0.6467115020287785
555 9 5 54 0.7249082719108615
556 9 5 55 0.8879961673689303
557 9 5 56 0.0677555537655602
558 9 5 57 0.34688482809101284
559 9 5 58 0.9403789479320269
560 9 5 59 0.08967511110544024
561 9 5 60 0.9514275337277345
562 9 5 61 0.2956361181618714
563 9 5 62 0.7504504334844967
564 9 5 63 0.6449467998856558
565 9 5 64 0.5927266322641639
566 9 5 65 0.0333861332525105
567 9 5 66 0.5415064453180982
568 9 5 67 0.5833475763886308
569 10 5 68 0.7178597404352515
570 10 5 69 0.6198809742070307
571 10 5 70 0.19247200399859254
572 10 5 71 0.03190320816733139
573 10 5 72 0.6963753767676385
574 10 5 73 0.1887538829244767
575 10 5 74 0.16909703078510152
576 10 5 75 0.1678157171940352
577 10 5 76 0.6390295784432939
578 10 5 77 0.4475147235378991
579 10 5 78 0.1835786088229967
580 10 5 79 0.7998208929904869
581 10 5 80 0.9030471344073621
582 10 5 81 0.8861815117330973
583 10 5 82 0.3851293755437196
584 10 5 83 0.9200438678551478
585 10 5 84 0.9747792976813118
586 10 5 85 0.7478071861736538
587 10 5 86 0.0011996674596151946
588 10 5 87 0.24884428002298598
589 10 5 88 0.6694860521801049
590 10 5 89 0.13544372234226865
591 10 5 90 0.5844137805182443
592 10 5 91 0.007056458100808349
593 10 5 92 0.3389469214924584
594 10 5 93 0.9826249889355889
595 10 5 94 0.5368810916512846
596 10 5 95 0.8931942344526005
597 4 5 96 0.3098314583683147
598 4 5 97 0.998238650499159
599 4 5 98 0.38139578710586397
600 4 5 1 0.5176040936380228
601 4 6 98 0.08923690260828054
602 4 6 1 0.11169667231884761
603 4 6 2 0.3281388832385963
604 4 6 3 0.3512141908180023
605 4 6 4 0.968526846328745
606 4 6 5 0.3906026906254798
607 4 6 6 0.04584908105032104
608 4 6 7 0.5834412730074227
609 4 6 8 0.5325816356254457
610 4 6 9 0.8806539544202597
611 4 6 10 0.18803011768031974
612 4 6 11 0.15198110875200221
613 4 6 12 0.2387976979019465
614 4 6 13 0.32630447299238874
615 4 6 14 0.14761348430424082
616 4 6 15 0.6066223481646089
617 4 6 16 0.6686495510096135
618 4 6 17 0.27075489231421324
619 4 6 18 0.7175974899539805
620 4 6 19 0.39988785650234415
621 4 6 20 0.274354402321598
622 4 6 21 0.6051239955039218
623 4 6 22 0.8205349659679705
624 4 6 23 0.6592215949078573
625 4 6 24 0.4441568753825176
626 4 6 25 0.23919550455764427
627 4 6 26 0.23634349897031115
628 4 6 27 0.48860280825679236
629 4 6 28 0.4919764855244546
630 4 6 29 0.19992319996120123
631 4 6 30 0.3057634001240026
632 4 6 31 0.3718841123641381
633 4 6 32 0.740638581951684
634 5 6 33 0.12891603480032932
635 5 6 34 0.9158908719012215
636 5 6 35 0.30581329439072147
637 5 6 36 0.2126345622020811
638 5 6 37 0.8464144950212126
639 5 6 38 0.6845643981577952
640 5 6 39 0.877613335697542
641 5 6 40 0.5683351464522798
642 5 6 41 0.37680811470776043
643 5 6 42 0.15198505868584788
644 5 6 43 0.6201588769284622
645 5 6 44 0.8388059051201857
646 5 6 45 0.5895331506439524
647 5 6 46 0.9608017703985088
648 9 6 47 0.6272015906794217
649 9 6 48 0.1888513253645111
650 9 6 49 0.3992289689198836
651 9 6 50 0.45999546516955336
652 9 6 51 0.5917608881709379
653 9 6 52 0.4156404240263287
654 9 6 53 0.2903198650760618
655 9 6 54 0.9032464305804105
656 9 6 55 0.142710256595303
657 9 6 56 0.1392430129825185
658 9 6 57 0.7837290916163347
659 9 6 58 0.4290713370968251
660 9 6 59 0.5977543910453574
661 9 6 60 0.6736326730003419
662 9 6 61 0.34722007736525906
663 9 6 62 0.30786832031020905
664 9 6 63 0.025405049706461957
665 9 6 64 0.3801887889789637
666 9 6 65 0.16589951505971268
667 9 6 66 0.52010870264262
668 10 6 67 0.8142288724696317
669 10 6 68 0.9004567456234576
670 10 6 69 0.13570575275898278
671 10 6 70 0.5902675470206786
672 10 6 71 0.7845535823370888
673 10 6 72 0.04090198207325346
674 10 6 73 0.4202448985218461
675 10 6 74 0.7426846209792309
676 10 6 75 0.24598374633088993
677 10 6 76 0.2396197587768688
678 10 6 77 0.9201264300483922
679 10 6 78 0.8684007687034534
680 10 6 79 0.3034905831450667
681 10 6 80 0.48343977949121075
682 10 6 81 0.04398887833955967
683 10 6 82 0.49611494339754936
684 10 6 83 0.14550517853644196
685 10 6 84 0.2635905683788853
686 10 6 85 0.241695355068688
687 10 6 86 0.9457593988809628
688 10 6 87 0.009357762283928817
689 10 6 88 0.6590656623095544
690 10 6 89 0.8627176914380601
691 10 6 90 0.10979193133734444
692 10 6 91 0.012570377791787601
693 10 6 92 0.9190599170603028
694 10 6 93 0.036517154140770725
695 10 6 94 0.8551555980551606
696 10 6 95 0.06292402738898972
697 4 6 96 0.9793210779748077
698 4 6 97 0.43676846091438304
699 4 6 98 0.8679578111855638
700 4 6 1 0.6158853951774389
701 4 7 98 0.19198793438083472
702 4 7 1 0.9875633112494563
703 4 7 2 0.8732725431366329
704 4 7 3 0.13489259451096125
705 4 7 4 0.17446317398238054
706 4 7 5 0.7972683273823735
707 4 7 6 0.5540706623513403
708 4 7 7 0.7281630753680599
709 4 7 8 0.09009579308325222
710 4 7 9 0.8645015525659782
711 4 7 10 0.16613502304812489
712 4 7 11 0.5851011991189448
713 4 7 12 0.8619241091246749
714 4 7 13 0.3907307625175782
715 4 7 14 0.7999188302354194
716 4 7 15 0.5160470163011734
717 4 7 16 0.7904571365142765
718 4 7 17 0.8552856330779924
719 4 7 18 0.4756566806427185
720 4 7 19 0.11102154151417865
721 4 7 20 0.7974488780526664
722 4 7 21 0.361115300657587
723 4 7 22 0.7746401339428207
724 4 7 23 0.7762882173918412
725 4 7 24 0.049846117961772296
726 4 7 25 0.14341145757146356
727 4 7 26 0.5074202695056642
728 4 7 27 0.18196437294211154
729 4 7 28 0.031567545539422315
730 4 7 29 0.5482567045212344
731 4 7 30 0.9988021274116746
732 4 7 31 0.45958005703373195
733 4 7 32 0.22549792780760702
734 4 7 33 0.234746112684033
735 5 7 34 0.9298469552074577
736 5 7 35 0.825396334392435
737 5 7 36 0.4440581481871746
738 5 7 37 0.8315702404864558
739 5 7 38 0.31869961675182024
740 5 7 39 0.17345857005562526
741 5 7 40 0.5039381351556653
742 5 7 41 0.7878357050213443
743 5 7 42 0.14491106683006727
744 5 7 43 0.5817749171217445
745 5 7 44 0.37905653994601773
746 5 7 45 0.697939012434981
747 5 7 46 0.3260256701143668
748 9 7 47 0.6056736882255082
749 9 7 48 0.1855372190232809
750 9 7 49 0.9515987385181212
751 9 7 50 0.24055660400538348
752 9 7 51 0.6943077388448488
753 9 7 52 0.35346961054920667
754 9 7 53 0.1626895155136021
755 9 7 54 0.7580725240514781
756 9 7 55 0.05943803449170204
757 9 7 56 0.12244634008409383
758 9 7 57 0.46431070996863444
759 9 7 58 0.7849714210000611
760 9 7 59 0.8500423034637217
761 9 7 60 0.061347847759316454
762 9 7 61 0.4225620517241918
763 9 7 62 0.6636183917195843
764 9 7 63 0.541959343835109
765 9 7 64 0.6575708547104677
766 9 7 65 0.017786648457772336
767 10 7 66 0.3728758773735603
768 10 7 67 0.03869271395159646
769 10 7 68 0.14687360547501493
770 10 7 69 0.8695819675265316
771 10 7 70 0.3696567333474752
772 10 7 71 0.09766287045401767
773 10 7 72 0.6622374807424405
774 10 7 73 0.6406675234865116
775 10 7 74 0.08398160107207642
776 10 7 75 0.3456093199966822
777 10 7 76 0.468621458374645
778 10 7 77 0.34473779657258496
779 10 7 78 0.5341238676626062
780 10 7 79 0.3275099659142664
781 10 7 80 0.5202117731935366
782 10 7 81 0.10471704635732615
783 10 7 82 0.26377711623226374
784 10 7 83 0.74529771786894
785 10 7 84 0.8277466996725592
786 10 7 85 0.760373154375363
787 10 7 86 0.8197814325430085
788 10 7 87 0.28581909112865445
789 10 7 88 0.15572176716635244
790 10 7 89 0.6080348864708803
791 10 7 90 0.28679631683356666
792 10 7 91 0.2118934342916845
793 10 7 92 0.3827583254115041
794 10 7 93 0.4701979539409574
795 10 7 94 0.9744100429747122
796 10 7 95 0.19599552875478832
797 4 7 96 0.4531443195283692
798 4 7 97 0.23909259613154354
799 4 7 98 0.2125261137899721
800 4 7 1 0.7129982274937108
801 4 8 98 0.22353274813151025
802 4 8 1 0.015825677408178973
803 4 8 2 0.35246996167807865
804 4 8 3 0.6765760663258328
805 4 8 4 0.666010282292389
806 4 8 5 0.9754987199984896
807 4 8 6 0.49410940798334846
808 4 8 7 0.9032846277963547
809 4 8 8 0.8272244417775524
810 4 8 9 0.1287426378028268
811 4 8 10 0.16338545085791523
812 4 8 11 0.41899479004348306
813 4 8 12 0.6629847933828894
814 4 8 13 0.22139889849217997
815 4 8 14 0.1499998285878955
816 4 8 15 0.584274673262929
817 4 8 16 0.36872993204979354
818 4 8 17 0.11661577968651049
819 4 8 18 0.9816090153215414
820 4 8 19 0.5084764458121448
821 4 8 20 0.10847881028210926
822 4 8 21 0.1374177765691208
823 4 8 22 0.05872439663844997
824 4 8 23 0.24669927650042878
825 4 8 24 0.10836107328835298
826 4 8 25 0.0128449602576306
827 4 8 26 0.30362137840523407
828 4 8 27 0.8294633360802827
829 4 8 28 0.9255483883040009
830 4 8 29 0.2670483409101764
831 4 8 30 0.28691017321256074
832 4 8 31 0.2618444240101069
833 4 8 32 0.32938424216325
834 4 8 33 0.11826619262921578
835 5 8 34 0.1870240938572134
836 5 8 35 0.246982305925472
837 5 8 36 0.6387376874288284
838 5 8 37 0.21339556399055648
839 5 8 38 0.6107315811703024
840 5 8 39 0.5382903387030099
841 5 8 40 0.5480813520085623
842 5 8 41 0.8139120387103809
843 5 8 42 0.25688044885308536
844 5 8 43 0.5053577943996963
845 5 8 44 0.44452220199596737
846 5 8 45 0.370180089835469
847 5 8 46 0.6409341543479338
848 9 8 47 0.7104501720555245
849 9 8 48 0.968989131806933
850 9 8 49 0.7737352832388156
851 9 8 50 0.6144612409169355
852 9 8 51 0.035677467318521394
853 9 8 52 0.10700814503362133
854 9 8 53 0.9609085493569094
855 9 8 54 0.21159130629182532
856 9 8 55 0.17531390203560604
857 9 8 56 0.40797295364307773
858 9 8 57 0.9562023222602287
859 9 8 58 0.4335515533105667
860 9 8 59 0.11341642986242928
861 9 8 60 0.026544652886363207
862 9 8 61 0.8901165008459027
863 9 8 62 0.9427502822106931
864 9 8 63 0.5438044875624813
865 9 8 64 0.15579133225745978
866 10 8 65 0.0036623901515772106
867 10 8 66 0.27947488069607873
868 10 8 67 0.0576263042059475
869 10 8 68 0.078904674863994
870 10 8 69 0.16059054626276448
871 10 8 70 0.13712343174714703
872 10 8 71 0.32315173956365806
873 10 8 72 0.5048072985623977
874 10 8 73 0.928398946725294
875 10 8 74 0.435990737084861
876 10 8 75 0.41309580384220346
877 10 8 76 0.07269104220927092
878 10 8 77 0.8604755369433109
879 10 8 78 0.42098121211575157
880 10 8 79 0.8966906837205514
881 10 8 80 0.9115031805337063
882 10 8 81 0.21426941556657242
883 10 8 82 0.7752220904276186
884 10 8 83 0.3068884416180312
885 10 8 84 0.9226238418783184
886 10 8 85 0.9741733672095201
887 10 8 86 0.7894030666591859
888 10 8 87 0.1174904337601047
889 10 8 88 0.017454672965169338
890 10 8 89 0.712839587690338
891 10 8 90 0.9557687186055962
892 10 8 91 0.4206639658943556
893 10 8 92 0.8863653733644383
894 10 8 93 0.5209396047786997
895 10 8 94 0.9660425362156393
896 10 8 95 0.08221988099713717
897 4 8 96 0.001420841257655514
898 4 8 97 0.9629187848124179
899 4 8 98 0.9841630025409763
900 4 8 1 0.27018998886142687
901 4 9 98 0.4625391344340971
902 4 9 1 0.7750838678637999
903 4 9 2 0.23756265149147904
904 4 9 3 0.9016564499527946
905 4 9 4 0.9852058885761097
906 4 9 5 0.8124023570918625
907 4 9 6 0.4248242139337137
908 4 9 7 0.7334495148045413
909 4 9 8 0.7975985254099397
910 4 9 9 0.5716806821466616
911 4 9 10 0.17289804578871437
912 4 9 11 0.5342442630067381
913 4 9 12 0.46594916018287846
914 4 9 13 0.47132740847324894
915 4 9 14 0.7936675078689763
916 4 9 15 0.01875100371317373
917 4 9 16 0.6992023064654745
918 4 9 17 0.9516968988801943
919 4 9 18 0.8875000821504537
920 4 9 19 0.9991076882369662
921 4 9 20 0.9974998922834362
922 4 9 21 0.3750481233202476
923 4 9 22 0.9205239981774208
924 4 9 23 0.5142472517238625
925 4 9 24 0.6037524603133773
926 4 9 25 0.6504415355833452
927 4 9 26 0.7627209648873
928 4 9 27 0.5349267996694179
929 4 9 28 0.5935323521785237
930 4 9 29 0.48643714626282697
931 4 9 30 0.31552817794653765
932 4 9 31 0.21026900108345703
933 4 9 32 0.09575083165038378
934 4 9 33 0.1832449923027799
935 5 9 34 0.7804933456147196
936 5 9 35 0.5210810593673815
937 5 9 36 0.5750580484221216
938 5 9 37 0.9160189046616367
939 5 9 38 0.8246287724926511
940 5 9 39 0.6358799113003558
941 5 9 40 0.8266310078540055
942 5 9 41 0.5322732739371413
943 5 9 42 0.8834616396334887
944 5 9 43 0.2274669533707313
945 5 9 44 0.8349913357821008
946 5 9 45 0.9889414224694927
947 5 9 46 0.10937947345632182
948 9 9 47 0.5010589159290512
949 9 9 48 0.9307215068202328
950 9 9 49 0.6883838363216797
951 9 9 50 0.02072115300132016
952 9 9 51 0.7093965987201734
953 9 9 52 0.7424242070838853
954 9 9 53 0.1376927011580208
955 9 9 54 0.7361656189789978
956 9 9 55 0.4859161868736813
957 9 9 56 0.2859965352717837
958 9 9 57 0.5519291559556959
959 9 9 58 0.7893214819969349
960 9 9 59 0.41398282260852637
961 9 9 60 0.15926708102170684
962 9 9 61 0.2494680302248663
963 9 9 62 0.9100232015684353
964 9 9 63 0.8683492447459623
965 10 9 64 0.21727056969057867
966 10 9 65 0.9464142908933053
967 10 9 66 0.8316900841590038
968 10 9 67 0.3144175595308616
969 10 9 68 0.29191134076488146
970 10 9 69 0.34709439980707235
971 10 9 70 0.13820645487525007
972 10 9 71 0.9315449826777852
973 10 9 72 0.48949314986386816
974 10 9 73 0.7489146891421556
975 10 9 74 0.39913293708664055
976 10 9 75 0.6385494325539797
977 10 9 76 0.35057026108033884
978 10 9 77 0.7324182661573292
979 10 9 78 0.3586601402177999
980 10 9 79 0.34273441779533576
981 10 9 80 0.6887998615262126
982 10 9 81 0.3911605344423478
983 10 9 82 0.7415676551926499
984 10 9 83 0.5081669249927931